    5    5    1    2
  0.5007283E+02  0.6302662E-09  0.6302662E-09  0.6302662E-09  0.5000000E-15
  1.000000000000000E-004
  CAR 
 unknown system                          
     38     10     68
