 vasp.5.4.4.18Apr17-6-g9f103f2a35 (build Aug 29 2024 00:09:08) complex          
  
 executed on             LinuxIFC date 2025.02.16  16:30:08
 running on   34 total cores
 distrk:  each k-point on   34 cores,    1 groups
 distr:  one band on NCORES_PER_BAND=   1 cores,   34 groups


--------------------------------------------------------------------------------------------------------


 INCAR:
 POTCAR:    PAW_PBE Al 04Jan2001                  
 POTCAR:    PAW_PBE Pb_d 06Sep2000                
 POTCAR:    PAW_PBE I 08Apr2002                   

 ----------------------------------------------------------------------------- 
|                                                                             |
|           W    W    AA    RRRRR   N    N  II  N    N   GGGG   !!!           |
|           W    W   A  A   R    R  NN   N  II  NN   N  G    G  !!!           |
|           W    W  A    A  R    R  N N  N  II  N N  N  G       !!!           |
|           W WW W  AAAAAA  RRRRR   N  N N  II  N  N N  G  GGG   !            |
|           WW  WW  A    A  R   R   N   NN  II  N   NN  G    G                |
|           W    W  A    A  R    R  N    N  II  N    N   GGGG   !!!           |
|                                                                             |
|      For optimal performance we recommend to set                            |
|        NCORE= 4 - approx SQRT( number of cores)                             |
|      NCORE specifies how many cores store one orbital (NPAR=cpu/NCORE).     |
|      This setting can  greatly improve the performance of VASP for DFT.     |
|      The default,   NCORE=1            might be grossly inefficient         |
|      on modern multi-core architectures or massively parallel machines.     |
|      Do your own testing !!!!                                               |
|      Unfortunately you need to use the default for GW and RPA calculations. |
|      (for HF NCORE is supported but not extensively tested yet)             |
|                                                                             |
 ----------------------------------------------------------------------------- 

 POTCAR:    PAW_PBE Al 04Jan2001                  
   VRHFIN =Al: s2p1                                                             
   LEXCH  = PE                                                                  
   EATOM  =    53.5387 eV,    3.9350 Ry                                         
                                                                                
   TITEL  = PAW_PBE Al 04Jan2001                                                
   LULTRA =        F    use ultrasoft PP ?                                      
   IUNSCR =        1    unscreen: 0-lin 1-nonlin 2-no                           
   RPACOR =    1.500    partial core radius                                     
   POMASS =   26.981; ZVAL   =    3.000    mass and valenz                      
   RCORE  =    1.900    outmost cutoff radius                                   
   RWIGS  =    2.650; RWIGS  =    1.402    wigner-seitz radius (au A)           
   ENMAX  =  240.300; ENMIN  =  180.225 eV                                      
   ICORE  =        2    local potential                                         
   LCOR   =        T    correct aug charges                                     
   LPAW   =        T    paw PP                                                  
   EAUG   =  291.052                                                            
   DEXC   =    0.000                                                            
   RMAX   =    1.939    core radius for proj-oper                               
   RAUG   =    1.300    factor for augmentation sphere                          
   RDEP   =    1.966    radius for radial grids                                 
   RDEPT  =    1.856    core radius for aug-charge                              
                                                                                
   Atomic configuration                                                         
    6 entries                                                                   
     n  l   j            E        occ.                                          
     1  0  0.50     -1511.1048   2.0000                                         
     2  0  0.50      -108.1629   2.0000                                         
     2  1  1.50       -69.6402   6.0000                                         
     3  0  0.50        -7.7528   2.0000                                         
     3  1  1.50        -2.7121   1.0000                                         
     3  2  2.50        -2.7212   0.0000                                         
   Description                                                                  
     l       E           TYP  RCUT    TYP  RCUT                                 
     0     -7.7528455     23  1.900                                             
     0     -3.3096929     23  1.900                                             
     1     -2.7120682     23  1.900                                             
     1     13.6058260     23  1.900                                             
     2     -2.7211652      7  1.900                                             
  local pseudopotential read in
  partial core-charges read in
  partial kinetic energy density read in
  atomic valenz-charges read in
  non local Contribution for L=           0  read in
    real space projection operators read in
  non local Contribution for L=           0  read in
    real space projection operators read in
  non local Contribution for L=           1  read in
    real space projection operators read in
  non local Contribution for L=           1  read in
    real space projection operators read in
    PAW grid and wavefunctions read in
 
   number of l-projection  operators is LMAX  =           4
   number of lm-projection operators is LMMAX =           8
 
 POTCAR:    PAW_PBE Pb_d 06Sep2000                
   VRHFIN =Pb:                                                                  
   LEXCH  = PE                                                                  
   EATOM  =  1661.6185 eV,  122.1255 Ry                                         
                                                                                
   TITEL  = PAW_PBE Pb_d 06Sep2000                                              
   LULTRA =        F    use ultrasoft PP ?                                      
   IUNSCR =        1    unscreen: 0-lin 1-nonlin 2-no                           
   RPACOR =    2.200    partial core radius                                     
   POMASS =  207.200; ZVAL   =   14.000    mass and valenz                      
   RCORE  =    2.500    outmost cutoff radius                                   
   RWIGS  =    3.260; RWIGS  =    1.725    wigner-seitz radius (au A)           
   ENMAX  =  237.835; ENMIN  =  178.376 eV                                      
   ICORE  =        3    local potential                                         
   LCOR   =        T    correct aug charges                                     
   LPAW   =        T    paw PP                                                  
   EAUG   =  391.914                                                            
   DEXC   =    0.000                                                            
   RMAX   =    2.565    core radius for proj-oper                               
   RAUG   =    1.300    factor for augmentation sphere                          
   RDEP   =    2.643    radius for radial grids                                 
   RDEPT  =    2.092    core radius for aug-charge                              
                                                                                
   Atomic configuration                                                         
   16 entries                                                                   
     n  l   j            E        occ.                                          
     1  0  0.50    -88091.8466   2.0000                                         
     2  0  0.50    -15753.4197   2.0000                                         
     2  1  1.50    -13508.1797   6.0000                                         
     3  0  0.50     -3781.7194   2.0000                                         
     3  1  1.50     -3138.2529   6.0000                                         
     3  2  2.50     -2483.2977  10.0000                                         
     4  0  0.50      -856.2895   2.0000                                         
     4  1  1.50      -645.4942   6.0000                                         
     4  2  2.50      -401.8768  10.0000                                         
     4  3  3.50      -132.9059  14.0000                                         
     5  0  0.50      -144.0950   2.0000                                         
     5  1  1.50       -85.7879   6.0000                                         
     5  2  2.50       -21.1769  10.0000                                         
     6  0  0.50       -12.0372   2.0000                                         
     6  1  1.50        -3.4971   2.0000                                         
     5  3  2.50        -2.7212   0.0000                                         
   Description                                                                  
     l       E           TYP  RCUT    TYP  RCUT                                 
     2    -21.1768523     23  2.500                                             
     2      1.3605826     23  2.500                                             
     0    -12.0371562     23  2.500                                             
     0     13.6058260     23  2.500                                             
     1     -3.4971339     23  2.500                                             
     1     13.6058260     23  2.500                                             
     3     -1.3605826      7  2.500                                             
  local pseudopotential read in
  partial core-charges read in
  partial kinetic energy density read in
  atomic valenz-charges read in
  non local Contribution for L=           2  read in
    real space projection operators read in
  non local Contribution for L=           2  read in
    real space projection operators read in
  non local Contribution for L=           0  read in
    real space projection operators read in
  non local Contribution for L=           0  read in
    real space projection operators read in
  non local Contribution for L=           1  read in
    real space projection operators read in
  non local Contribution for L=           1  read in
    real space projection operators read in
    PAW grid and wavefunctions read in
 
   number of l-projection  operators is LMAX  =           6
   number of lm-projection operators is LMMAX =          18
 
 POTCAR:    PAW_PBE I 08Apr2002                   
   VRHFIN =I : s2p5                                                             
   LEXCH  = PE                                                                  
   EATOM  =   315.8678 eV,   23.2156 Ry                                         
                                                                                
   TITEL  = PAW_PBE I 08Apr2002                                                 
   LULTRA =        F    use ultrasoft PP ?                                      
   IUNSCR =        1    unscreen: 0-lin 1-nonlin 2-no                           
   RPACOR =    2.200    partial core radius                                     
   POMASS =  126.904; ZVAL   =    7.000    mass and valenz                      
   RCORE  =    2.300    outmost cutoff radius                                   
   RWIGS  =    2.810; RWIGS  =    1.487    wigner-seitz radius (au A)           
   ENMAX  =  175.647; ENMIN  =  131.735 eV                                      
   ICORE  =        3    local potential                                         
   LCOR   =        T    correct aug charges                                     
   LPAW   =        T    paw PP                                                  
   EAUG   =  370.139                                                            
   DEXC   =    0.000                                                            
   RMAX   =    2.359    core radius for proj-oper                               
   RAUG   =    1.300    factor for augmentation sphere                          
   RDEP   =    2.392    radius for radial grids                                 
   RDEPT  =    2.170    core radius for aug-charge                              
                                                                                
   Atomic configuration                                                         
   13 entries                                                                   
     n  l   j            E        occ.                                          
     1  0  0.50    -32976.3739   2.0000                                         
     2  0  0.50     -5094.5933   2.0000                                         
     2  1  1.50     -4572.0131   6.0000                                         
     3  0  0.50     -1028.2813   2.0000                                         
     3  1  1.50      -859.0250   6.0000                                         
     3  2  2.50      -605.7620  10.0000                                         
     4  0  0.50      -180.5540   2.0000                                         
     4  1  1.50      -127.5306   6.0000                                         
     4  2  2.50       -50.2720  10.0000                                         
     5  0  0.50       -17.4058   2.0000                                         
     5  1  0.50        -7.0851   5.0000                                         
     5  2  1.50        -7.0750   0.0000                                         
     4  3  2.50        -7.0750   0.0000                                         
   Description                                                                  
     l       E           TYP  RCUT    TYP  RCUT                                 
     0    -17.4058016     23  2.300                                             
     0    -18.7663842     23  2.300                                             
     1     -7.0850686     23  2.300                                             
     1     -4.2150896     23  2.300                                             
     2     -7.0750295     23  2.300                                             
     3     -1.3605826     23  2.300                                             
  local pseudopotential read in
  partial core-charges read in
  partial kinetic energy density read in
  atomic valenz-charges read in
  non local Contribution for L=           0  read in
    real space projection operators read in
  non local Contribution for L=           0  read in
    real space projection operators read in
  non local Contribution for L=           1  read in
    real space projection operators read in
  non local Contribution for L=           1  read in
    real space projection operators read in
  non local Contribution for L=           2  read in
    real space projection operators read in
    PAW grid and wavefunctions read in
 
   number of l-projection  operators is LMAX  =           5
   number of lm-projection operators is LMMAX =          13
 
  PAW_PBE Al 04Jan2001                  :
 energy of atom  1       EATOM=  -53.5387
 kinetic energy error for atom=    0.0005 (will be added to EATOM!!)
  PAW_PBE Pb_d 06Sep2000                :
 energy of atom  2       EATOM=-1661.6185
 kinetic energy error for atom=    0.0069 (will be added to EATOM!!)
  PAW_PBE I 08Apr2002                   :
 energy of atom  3       EATOM= -315.8678
 kinetic energy error for atom=    0.0013 (will be added to EATOM!!)
 
 
 POSCAR: New structure                           
  positions in direct lattice
  velocities in cartesian coordinates
 exchange correlation table for  LEXCH =        8
   RHO(1)=    0.500       N(1)  =     2000
   RHO(2)=  100.500       N(2)  =     4000

 VTST: version 3.2, (02/03/18)

 CHAIN: initializing optimizer
 
 OPT: Using VASP Dynamics algorithm
 CHAIN: Read ICHAIN            0
 
 POSCAR: New structure                           
  positions in direct lattice
  velocities in cartesian coordinates
 


--------------------------------------------------------------------------------------------------------


 ion  position               nearest neighbor table
   1  0.000  0.000  0.000-
   2  0.500  0.500  0.500-   3 3.15   3 3.15   5 3.15   5 3.15   4 3.15   4 3.15
   3  0.000  0.500  0.500-   2 3.15   2 3.15
   4  0.500  0.000  0.500-   2 3.15   2 3.15
   5  0.500  0.500  0.000-   2 3.15   2 3.15
 
  LATTYP: Found a simple cubic cell.
 ALAT       =     6.3026622299
  
  Lattice vectors:
  
 A1 = (   6.3026622299,   0.0000000000,   0.0000000000)
 A2 = (   0.0000000000,   6.3026622299,   0.0000000000)
 A3 = (   0.0000000000,   0.0000000000,   6.3026622299)


Analysis of symmetry for initial positions (statically):
=====================================================================
 Subroutine PRICEL returns:
 Original cell was already a primitive cell.
 

 Routine SETGRP: Setting up the symmetry group for a 
 simple cubic supercell.


 Subroutine GETGRP returns: Found 48 space group operations
 (whereof 48 operations were pure point group operations)
 out of a pool of 48 trial point group operations.


The static configuration has the point symmetry O_h .


Analysis of symmetry for dynamics (positions and initial velocities):
=====================================================================
 Subroutine PRICEL returns:
 Original cell was already a primitive cell.
 

 Routine SETGRP: Setting up the symmetry group for a 
 simple cubic supercell.


 Subroutine GETGRP returns: Found 48 space group operations
 (whereof 48 operations were pure point group operations)
 out of a pool of 48 trial point group operations.


The dynamic configuration has the point symmetry O_h .


Analysis of structural, dynamic, and magnetic symmetry:
=====================================================================
 Subroutine PRICEL returns:
 Original cell was already a primitive cell.
 

 Routine SETGRP: Setting up the symmetry group for a 
 simple cubic supercell.


 Subroutine GETGRP returns: Found 48 space group operations
 (whereof 48 operations were pure point group operations)
 out of a pool of 48 trial point group operations.


The magnetic configuration has the point symmetry O_h .


 Subroutine INISYM returns: Found 48 space group operations
 (whereof 48 operations are pure point group operations),
 and found     1 'primitive' translations

 
 
 KPOINTS: K-Spacing Value to Generate K-Mesh: 0.02

Automatic generation of k-mesh.
Space group operators:
 irot       det(A)        alpha          n_x          n_y          n_z        tau_x        tau_y        tau_z
    1     1.000000     0.000001     1.000000     0.000000     0.000000     0.000000     0.000000     0.000000
    2    -1.000000     0.000001     1.000000     0.000000     0.000000     0.000000     0.000000     0.000000
    3     1.000000   120.000000    -0.577350    -0.577350    -0.577350     0.000000     0.000000     0.000000
    4    -1.000000   120.000000    -0.577350    -0.577350    -0.577350     0.000000     0.000000     0.000000
    5     1.000000   120.000000     0.577350     0.577350     0.577350     0.000000     0.000000     0.000000
    6    -1.000000   120.000000     0.577350     0.577350     0.577350     0.000000     0.000000     0.000000
    7     1.000000    90.000000     0.000000     0.000000    -1.000000     0.000000     0.000000     0.000000
    8    -1.000000    90.000000     0.000000     0.000000    -1.000000     0.000000     0.000000     0.000000
    9     1.000000   180.000000     0.000000     0.707107     0.707107     0.000000     0.000000     0.000000
   10    -1.000000   180.000000     0.000000     0.707107     0.707107     0.000000     0.000000     0.000000
   11     1.000000    90.000000     0.000000     1.000000     0.000000     0.000000     0.000000     0.000000
   12    -1.000000    90.000000     0.000000     1.000000     0.000000     0.000000     0.000000     0.000000
   13     1.000000   180.000000     0.000000     0.000000     1.000000     0.000000     0.000000     0.000000
   14    -1.000000   180.000000     0.000000     0.000000     1.000000     0.000000     0.000000     0.000000
   15     1.000000   120.000000    -0.577350     0.577350     0.577350     0.000000     0.000000     0.000000
   16    -1.000000   120.000000    -0.577350     0.577350     0.577350     0.000000     0.000000     0.000000
   17     1.000000   120.000000    -0.577350     0.577350    -0.577350     0.000000     0.000000     0.000000
   18    -1.000000   120.000000    -0.577350     0.577350    -0.577350     0.000000     0.000000     0.000000
   19     1.000000    90.000000     0.000000     0.000000     1.000000     0.000000     0.000000     0.000000
   20    -1.000000    90.000000     0.000000     0.000000     1.000000     0.000000     0.000000     0.000000
   21     1.000000    90.000000    -1.000000     0.000000     0.000000     0.000000     0.000000     0.000000
   22    -1.000000    90.000000    -1.000000     0.000000     0.000000     0.000000     0.000000     0.000000
   23     1.000000   180.000000     0.707107     0.000000     0.707107     0.000000     0.000000     0.000000
   24    -1.000000   180.000000     0.707107     0.000000     0.707107     0.000000     0.000000     0.000000
   25     1.000000   120.000000     0.577350    -0.577350     0.577350     0.000000     0.000000     0.000000
   26    -1.000000   120.000000     0.577350    -0.577350     0.577350     0.000000     0.000000     0.000000
   27     1.000000   120.000000    -0.577350    -0.577350     0.577350     0.000000     0.000000     0.000000
   28    -1.000000   120.000000    -0.577350    -0.577350     0.577350     0.000000     0.000000     0.000000
   29     1.000000   180.000000     1.000000     0.000000     0.000000     0.000000     0.000000     0.000000
   30    -1.000000   180.000000     1.000000     0.000000     0.000000     0.000000     0.000000     0.000000
   31     1.000000    90.000000     0.000000    -1.000000     0.000000     0.000000     0.000000     0.000000
   32    -1.000000    90.000000     0.000000    -1.000000     0.000000     0.000000     0.000000     0.000000
   33     1.000000   180.000000     0.707107     0.707107     0.000000     0.000000     0.000000     0.000000
   34    -1.000000   180.000000     0.707107     0.707107     0.000000     0.000000     0.000000     0.000000
   35     1.000000    90.000000     1.000000     0.000000     0.000000     0.000000     0.000000     0.000000
   36    -1.000000    90.000000     1.000000     0.000000     0.000000     0.000000     0.000000     0.000000
   37     1.000000   120.000000     0.577350    -0.577350    -0.577350     0.000000     0.000000     0.000000
   38    -1.000000   120.000000     0.577350    -0.577350    -0.577350     0.000000     0.000000     0.000000
   39     1.000000   180.000000     0.000000     1.000000     0.000000     0.000000     0.000000     0.000000
   40    -1.000000   180.000000     0.000000     1.000000     0.000000     0.000000     0.000000     0.000000
   41     1.000000   120.000000     0.577350     0.577350    -0.577350     0.000000     0.000000     0.000000
   42    -1.000000   120.000000     0.577350     0.577350    -0.577350     0.000000     0.000000     0.000000
   43     1.000000   180.000000     0.000000    -0.707107     0.707107     0.000000     0.000000     0.000000
   44    -1.000000   180.000000     0.000000    -0.707107     0.707107     0.000000     0.000000     0.000000
   45     1.000000   180.000000     0.707107    -0.707107     0.000000     0.000000     0.000000     0.000000
   46    -1.000000   180.000000     0.707107    -0.707107     0.000000     0.000000     0.000000     0.000000
   47     1.000000   180.000000     0.707107     0.000000    -0.707107     0.000000     0.000000     0.000000
   48    -1.000000   180.000000     0.707107     0.000000    -0.707107     0.000000     0.000000     0.000000
 
 Subroutine IBZKPT returns following result:
 ===========================================
 
 Found     10 irreducible k-points:
 
 Following reciprocal coordinates:
            Coordinates               Weight
  0.000000  0.000000  0.000000      1.000000
  0.250000  0.000000  0.000000      6.000000
  0.500000  0.000000  0.000000      3.000000
  0.250000  0.250000  0.000000     12.000000
  0.500000  0.250000  0.000000     12.000000
  0.500000  0.500000  0.000000      3.000000
  0.250000  0.250000  0.250000      8.000000
  0.500000  0.250000  0.250000     12.000000
  0.500000  0.500000  0.250000      6.000000
  0.500000  0.500000  0.500000      1.000000
 
 Following cartesian coordinates:
            Coordinates               Weight
  0.000000  0.000000  0.000000      1.000000
  0.039666  0.000000  0.000000      6.000000
  0.079332  0.000000  0.000000      3.000000
  0.039666  0.039666  0.000000     12.000000
  0.079332  0.039666  0.000000     12.000000
  0.079332  0.079332  0.000000      3.000000
  0.039666  0.039666  0.039666      8.000000
  0.079332  0.039666  0.039666     12.000000
  0.079332  0.079332  0.039666      6.000000
  0.079332  0.079332  0.079332      1.000000
 
 
 Subroutine IBZKPT_HF returns following result:
 ==============================================
 
 Found     64 k-points in 1st BZ
 the following     64 k-points will be used (e.g. in the exchange kernel)
 Following reciprocal coordinates:   # in IRBZ
  0.000000  0.000000  0.000000    0.01562500   1 t-inv F
  0.250000  0.000000  0.000000    0.01562500   2 t-inv F
  0.500000  0.000000  0.000000    0.01562500   3 t-inv F
  0.250000  0.250000  0.000000    0.01562500   4 t-inv F
  0.500000  0.250000  0.000000    0.01562500   5 t-inv F
  0.500000  0.500000  0.000000    0.01562500   6 t-inv F
  0.250000  0.250000  0.250000    0.01562500   7 t-inv F
  0.500000  0.250000  0.250000    0.01562500   8 t-inv F
  0.500000  0.500000  0.250000    0.01562500   9 t-inv F
  0.500000  0.500000  0.500000    0.01562500  10 t-inv F
 -0.250000  0.000000  0.000000    0.01562500   2 t-inv F
  0.000000  0.250000  0.000000    0.01562500   2 t-inv F
  0.000000 -0.250000  0.000000    0.01562500   2 t-inv F
  0.000000  0.000000  0.250000    0.01562500   2 t-inv F
  0.000000  0.000000 -0.250000    0.01562500   2 t-inv F
  0.000000  0.500000  0.000000    0.01562500   3 t-inv F
  0.000000  0.000000  0.500000    0.01562500   3 t-inv F
 -0.250000 -0.250000  0.000000    0.01562500   4 t-inv F
  0.000000  0.250000  0.250000    0.01562500   4 t-inv F
  0.000000 -0.250000 -0.250000    0.01562500   4 t-inv F
  0.250000  0.000000  0.250000    0.01562500   4 t-inv F
 -0.250000  0.000000 -0.250000    0.01562500   4 t-inv F
 -0.250000  0.250000  0.000000    0.01562500   4 t-inv F
  0.250000 -0.250000  0.000000    0.01562500   4 t-inv F
 -0.250000  0.000000  0.250000    0.01562500   4 t-inv F
  0.250000  0.000000 -0.250000    0.01562500   4 t-inv F
  0.000000 -0.250000  0.250000    0.01562500   4 t-inv F
  0.000000  0.250000 -0.250000    0.01562500   4 t-inv F
 -0.500000 -0.250000  0.000000    0.01562500   5 t-inv F
  0.000000  0.500000  0.250000    0.01562500   5 t-inv F
  0.000000 -0.500000 -0.250000    0.01562500   5 t-inv F
  0.250000  0.000000  0.500000    0.01562500   5 t-inv F
 -0.250000  0.000000 -0.500000    0.01562500   5 t-inv F
 -0.250000  0.500000  0.000000    0.01562500   5 t-inv F
  0.250000 -0.500000  0.000000    0.01562500   5 t-inv F
 -0.500000  0.000000  0.250000    0.01562500   5 t-inv F
  0.500000  0.000000 -0.250000    0.01562500   5 t-inv F
  0.000000  0.250000  0.500000    0.01562500   5 t-inv F
  0.000000 -0.250000 -0.500000    0.01562500   5 t-inv F
  0.000000  0.500000  0.500000    0.01562500   6 t-inv F
  0.500000  0.000000  0.500000    0.01562500   6 t-inv F
 -0.250000 -0.250000 -0.250000    0.01562500   7 t-inv F
 -0.250000  0.250000  0.250000    0.01562500   7 t-inv F
  0.250000 -0.250000 -0.250000    0.01562500   7 t-inv F
 -0.250000 -0.250000  0.250000    0.01562500   7 t-inv F
  0.250000  0.250000 -0.250000    0.01562500   7 t-inv F
  0.250000 -0.250000  0.250000    0.01562500   7 t-inv F
 -0.250000  0.250000 -0.250000    0.01562500   7 t-inv F
 -0.500000 -0.250000 -0.250000    0.01562500   8 t-inv F
  0.250000  0.500000  0.250000    0.01562500   8 t-inv F
 -0.250000 -0.500000 -0.250000    0.01562500   8 t-inv F
  0.250000  0.250000  0.500000    0.01562500   8 t-inv F
 -0.250000 -0.250000 -0.500000    0.01562500   8 t-inv F
 -0.250000  0.500000  0.250000    0.01562500   8 t-inv F
  0.250000 -0.500000 -0.250000    0.01562500   8 t-inv F
 -0.250000  0.250000  0.500000    0.01562500   8 t-inv F
  0.250000 -0.250000 -0.500000    0.01562500   8 t-inv F
 -0.500000 -0.250000  0.250000    0.01562500   8 t-inv F
  0.500000  0.250000 -0.250000    0.01562500   8 t-inv F
 -0.500000 -0.500000 -0.250000    0.01562500   9 t-inv F
  0.250000  0.500000  0.500000    0.01562500   9 t-inv F
 -0.250000 -0.500000 -0.500000    0.01562500   9 t-inv F
  0.500000  0.250000  0.500000    0.01562500   9 t-inv F
 -0.500000 -0.250000 -0.500000    0.01562500   9 t-inv F


--------------------------------------------------------------------------------------------------------




 Dimension of arrays:
   k-points           NKPTS =     10   k-points in BZ     NKDIM =     64   number of bands    NBANDS=     68
   number of dos      NEDOS =   2000   number of ions     NIONS =      5
   non local maximal  LDIM  =      6   non local SUM 2l+1 LMDIM =     18
   total plane-waves  NPLWV =  32768
   max r-space proj   IRMAX =      1   max aug-charges    IRDMAX=   7770
   dimension x,y,z NGX =    32 NGY =   32 NGZ =   32
   dimension x,y,z NGXF=    64 NGYF=   64 NGZF=   64
   support grid    NGXF=    64 NGYF=   64 NGZF=   64
   ions per type =               1   1   3
   NGX,Y,Z   is equivalent  to a cutoff of   8.44,  8.44,  8.44 a.u.
   NGXF,Y,Z  is equivalent  to a cutoff of  16.88, 16.88, 16.88 a.u.

 SYSTEM =  unknown system                          
 POSCAR =  New structure                           

 Startparameter for this run:
   NWRITE =      2    write-flag & timer
   PREC   = normal    normal or accurate (medium, high low for compatibility)
   ISTART =      1    job   : 0-new  1-cont  2-samecut
   ICHARG =      0    charge: 1-file 2-atom 10-const
   ISPIN  =      2    spin polarized calculation?
   LNONCOLLINEAR =      F non collinear calculations
   LSORBIT =      F    spin-orbit coupling
   INIWAV =      1    electr: 0-lowe 1-rand  2-diag
   LASPH  =      F    aspherical Exc in radial PAW
   METAGGA=      F    non-selfconsistent MetaGGA calc.

 Electronic Relaxation 1
   ENCUT  =  400.0 eV  29.40 Ry    5.42 a.u.  10.28 10.28 10.28*2*pi/ulx,y,z
   ENINI  =  400.0     initial cutoff
   ENAUG  =  391.9 eV  augmentation charge cutoff
   NELM   =    200;   NELMIN=  2; NELMDL=  0     # of ELM steps 
   EDIFF  = 0.1E-05   stopping-criterion for ELM
   LREAL  =      F    real-space projection
   NLSPLINE    = F    spline interpolate recip. space projectors
   LCOMPAT=      F    compatible to vasp.4.4
   GGA_COMPAT  = T    GGA compatible to vasp.4.4-vasp.4.6
   LMAXPAW     = -100 max onsite density
   LMAXMIX     =    2 max onsite mixed and CHGCAR
   VOSKOWN=      0    Vosko Wilk Nusair interpolation
   ROPT   =    0.00000   0.00000   0.00000
 Ionic relaxation
   EDIFFG = 0.1E-04   stopping-criterion for IOM
   NSW    =      0    number of steps for IOM
   NBLOCK =      1;   KBLOCK =      1    inner block; outer block 
   IBRION =     -1    ionic relax: 0-MD 1-quasi-New 2-CG
   NFREE  =      0    steps in history (QN), initial steepest desc. (CG)
   ISIF   =      0    stress and relaxation
   IWAVPR =     10    prediction:  0-non 1-charg 2-wave 3-comb
   ISYM   =      3    0-nonsym 1-usesym 2-fastsym
   LCORR  =      T    Harris-Foulkes like correction to forces

   POTIM  = 0.5000    time-step for ionic-motion
   TEIN   =    0.0    initial temperature
   TEBEG  =    0.0;   TEEND  =   0.0 temperature during run
   SMASS  =  -3.00    Nose mass-parameter (am)
   estimated Nose-frequenzy (Omega)   =  0.10E-29 period in steps =****** mass=  -0.908E-27a.u.
   SCALEE = 1.0000    scale energy and forces
   NPACO  =    256;   APACO  = 16.0  distance and # of slots for P.C.
   PSTRESS=    0.0 pullay stress

  Mass of Ions in am
   POMASS =  26.98207.20126.90
  Ionic Valenz
   ZVAL   =   3.00 14.00  7.00
  Atomic Wigner-Seitz radii
   RWIGS  =  -1.00 -1.00 -1.00
  virtual crystal weights 
   VCA    =   1.00  1.00  1.00
   NELECT =      38.0000    total number of electrons
   NUPDOWN=      -1.0000    fix difference up-down

 DOS related values:
   EMIN   =  10.00;   EMAX   =-10.00  energy-range for DOS
   EFERMI =   0.00
   ISMEAR =     0;   SIGMA  =   0.05  broadening in eV -4-tet -1-fermi 0-gaus

 Electronic relaxation 2 (details)
   IALGO  =     38    algorithm
   LDIAG  =      T    sub-space diagonalisation (order eigenvalues)
   LSUBROT=      F    optimize rotation matrix (better conditioning)
   TURBO    =      0    0=normal 1=particle mesh
   IRESTART =      0    0=no restart 2=restart with 2 vectors
   NREBOOT  =      0    no. of reboots
   NMIN     =      0    reboot dimension
   EREF     =   0.00    reference energy to select bands
   IMIX   =      1    mixing-type and parameters
     AMIX     =   0.40;   BMIX     =  1.00
     AMIX_MAG =   1.60;   BMIX_MAG =  1.00
     AMIN     =   0.10
     WC   =   100.;   INIMIX=   1;  MIXPRE=   1;  MAXMIX= -45

 Intra band minimization:
   WEIMIN = 0.0000     energy-eigenvalue tresh-hold
   EBREAK =  0.37E-08  absolut break condition
   DEPER  =   0.30     relativ break condition  

   TIME   =   0.40     timestep for ELM

  volume/ion in A,a.u.               =      50.07       337.91
  Fermi-wavevector in a.u.,A,eV,Ry     =   0.873264  1.650229 10.375656  0.762589
  Thomas-Fermi vector in A             =   1.992630
 
 Write flags
   LWAVE        =      T    write WAVECAR
   LDOWNSAMPLE  =      F    k-point downsampling of WAVECAR
   LCHARG       =      T    write CHGCAR
   LVTOT        =      F    write LOCPOT, total local potential
   LVHAR        =      F    write LOCPOT, Hartree potential only
   LELF         =      F    write electronic localiz. function (ELF)
   LORBIT       =      0    0 simple, 1 ext, 2 COOP (PROOUT), +10 PAW based schemes


 Dipole corrections
   LMONO  =      F    monopole corrections only (constant potential shift)
   LDIPOL =      F    correct potential (dipole corrections)
   IDIPOL =      0    1-x, 2-y, 3-z, 4-all directions 
   EPSILON=  1.0000000 bulk dielectric constant

 Exchange correlation treatment:
   GGA     =    PE    GGA type
   LEXCH   =     8    internal setting for exchange type
   VOSKOWN=      0    Vosko Wilk Nusair interpolation
   EXXOEP  =     0    0=HF, 1=EXX-LHF (local Hartree Fock) 2=EXX OEP
   LHFCALC =     T    Hartree Fock is set to
   LSYMGRAD=     F    symmetrize gradient (conserves proper symmetry)
   PRECFOCK=normal    Normal, Fast or Accurate (Low or Medium for compatibility)
   LRHFCALC=     F    long range Hartree Fock
   LRSCOR  =     F    long range correlation only (use DFT for short range part)
   LTHOMAS =     F    Thomas Fermi screening in HF
   LMODELHF=     F    short range full HF, long range fraction AEXX
   ENCUT4O =  -1.0   cutoff for four orbital integrals eV
   LMAXFOCK=     4    L truncation for augmentation on plane wave grid
   LMAXFOCKAE=   4    L truncation for all-electron charge restoration on plane wave grid
   NMAXFOCKAE=   1    number of basis functions for all-electron charge restoration
   LFOCKAEDFT=     F  apply the AE augmentation even for DFT
   NKREDX  =     1    reduce k-point grid by
   NKREDY  =     1    reduce k-point grid by
   NKREDZ  =     1    reduce k-point grid by
   SHIFTRED=     F    shift reduced grid of Gamma
   HFKIDENT=     F    idential grid for each k-point
   ODDONLY =     F    use only odd q-grid points
   EVENONLY=     F    use only even q-grid points
   HFALPHA =   -1.0000 decay constant for conv. correction
   MCALPHA =    0.0000 extent of test-charge in conv. correction in multipole expansion
   AEXX    =    1.0000 exact exchange contribution
   HFSCREEN=    0.0000 screening length (either q_TF or 0.3 A-1)
   HFSCREENC=   0.0000 screening length for correlation (either q_TF or 0.3 A-1)
   HFRCUT  =    0.0000 spherical cutoff for potential kernel
   ALDAX   =    0.0000 LDA exchange part
   AGGAX   =    0.0000 GGA exchange part
   ALDAC   =    0.0000 LDA correlation
   AGGAC   =    0.0000 GGA correlation
   ENCUTFOCK=  -1.0 apply spherical cutoff to Coloumb kernel
   NBANDSGWLOW=     1    first orbital included in HF term
   NBLOCK_FOCK=    64    blocking factor in FOCK_ACC
 Linear response parameters
   LEPSILON=     F    determine dielectric tensor
   LRPA    =     F    only Hartree local field effects (RPA)
   LNABLA  =     F    use nabla operator in PAW spheres
   LVEL    =     F    velocity operator in full k-point grid
   LINTERFAST=   F  fast interpolation
   KINTER  =     0    interpolate to denser k-point grid
   CSHIFT  =0.1000    complex shift for real part using Kramers Kronig
   OMEGAMAX=  -1.0    maximum frequency
   DEG_THRESHOLD= 0.2000000E-02 threshold for treating states as degnerate
   RTIME   =   -0.100 relaxation time in fs
  (WPLASMAI=    0.000 imaginary part of plasma frequency in eV, 0.658/RTIME)
   DFIELD  = 0.0000000 0.0000000 0.0000000 field for delta impulse in time
 
 Orbital magnetization related:
   ORBITALMAG=     F  switch on orbital magnetization
   LCHIMAG   =     F  perturbation theory with respect to B field
   DQ        =  0.001000  dq finite difference perturbation B field
   LLRAUG    =     F  two centre corrections for induced B field

 Response functions by sum over occupied states:
   ALGO    =TDHF       execute GW part
   LFXC    =     F    include DFT xc kernel in TD-HF and W
   LADDER  =     T    particle hole ladder diagrams for BSE/TD-HF and W (Nano-quanta)
   LRPAFORCE=     F   calculate RPA forces
   LHARTREE=     T    include Hartree terms (bubbles-RPA) in BSE/TD-HF
   IBSE    =     0    BSE modus: 0 exact, 1 time-evolution (store matrix), 10 time-evolution (implicit)
   KPOINT  =    -1   0   0   0    k-point index at which BSE equation is solved (and G at which response is eval.)
   LTRIPLET=     F    triplet instead of singlet excitation (BSE only)
   LRSRPA  =     F    range separated RPA (total - short) in ACFDT
   LTCTE   =     F    use test-charge test-electron dielectric function
   LTETE   =     F    use test-electron test-electron dielectric function
   LFXCEPS =     F    determine f_xc=epsilon-1/Xi Sharma and Gross kernel
   LFXHEG  =     F    model exchange using f_x(G,k_F) from free electron gas
   NATURALO=     2    0 natural orbitals, 1 only virtual, 2 only occupied-virtual rotation
   L2ORDER =     F    2nd order terms only
   LMP2LT   =     F    use LT MP2
   LUSEW   =     F    use screened W from WXXXX.tmp files instead of (screened) HF kernel
   ENCUTGW = 266.7    cutoff for response function in eV
   ENCUTGWSOFT = 266.7 soft cutoff for Coulomb kernel in GW response function in eV
   ENCUTLF =  -1.0    cutoff for local field effects
   LMAXMP2 =    -1    maximum L for one center terms
   SCISSOR =   0.0    scissor correction
   NOMEGA  =     0    number of frequencies
   NOMEGAR =     0    number of frequencies along real axis
   NBANDSGW=    -1    number of bands for which selfenergy shift is calculated
   NBANDSGWLOW=     1 lowest band included in GW (to exclude core correlation)
   NBANDSO =    -1    number of bands for electron-hole treatment (occupied)
   NBANDSV =    -1    number of bands for electron-hole treatment (virtual)
   NELM    =   200    number of iterations in solving QP/BSE equation
   NELMHF  =     1    number of iterations in the inner HF iteration
   DIM     =     3    dimensionality of system (0=0D molecules, 3=3D)
   ANTIRES =     0    antiresonant part (0) no TDA (1) w=0 exact (2) accurate
   OMEGAMAX= -30.0    maximum frequency
   OMEGAMIN= -30.000    minimum frequency
   OMEGATL =-200.0    maximum frequency of tail
   OMEGAGRID=   140    grid type (0 default)
   CSHIFT  = 0.100    complex shift used in evaluation of response functions
   SELFENERGY=   F    calculate selfenergy instead of QP shifts
   LSPECTRAL =   F    use spectral functions                   
   LSPECTRALGW=   F   use spectral functions to calculate int dz G(w-z) W(z) (more accurate)
   LSINGLES  =   F   calculate the singles contribution to the correlation energy
   LFERMIGW  =   F   update Fermi-energy in the Greens function

   ODDONLYGW =   F    avoid all even points for polarizability 
   EVENONLYGW=   F    avoid all odd  points for polarizability 
   NKREDLFX  =   1   NKREDLFY  =   1   NKREDLFZ  =   1

   TELESCOPE =   0   use telescope k-point sampling
   TAUPAR    =   1   number of TAU groups used in imaginary time calculation
   OMEGAPAR  =  -1   number of OMEGA groups used in imaginary frequency calculation



--------------------------------------------------------------------------------------------------------


 Static calculation
 charge density and potential will be updated during run
 spin polarized calculation
 Variant of blocked Davidson
 Davidson routine will perform the subspace rotation
 perform sub-space diagonalisation
    after iterative eigenvector-optimisation
 Kerker-like  mixing scheme
 using additional bands           49
 reciprocal scheme for non local part
 use partial core corrections
 calculate Harris-corrections to forces 
   (improved forces if not selfconsistent)
 use gradient corrections 
 use of overlap-Matrix (Vanderbilt PP)
 Gauss-broadening in eV      SIGMA  =   0.05


--------------------------------------------------------------------------------------------------------


  energy-cutoff  :      400.00
  volume of cell :      250.36
      direct lattice vectors                 reciprocal lattice vectors
     6.302662230  0.000000000  0.000000000     0.158663111  0.000000000  0.000000000
     0.000000000  6.302662230  0.000000000     0.000000000  0.158663111  0.000000000
     0.000000000  0.000000000  6.302662230     0.000000000  0.000000000  0.158663111

  length of vectors
     6.302662230  6.302662230  6.302662230     0.158663111  0.158663111  0.158663111


 
 old parameters found on file WAVECAR:
  energy-cutoff  :      400.00
  volume of cell :      250.36
      direct lattice vectors                 reciprocal lattice vectors
     6.302662230  0.000000000  0.000000000     0.158663111  0.000000000  0.000000000
     0.000000000  6.302662230  0.000000000     0.000000000  0.158663111  0.000000000
     0.000000000  0.000000000  6.302662230     0.000000000  0.000000000  0.158663111

  length of vectors

 
 k-points in units of 2pi/SCALE and weight: K-Spacing Value to Generate K-Mesh: 0.02
   0.00000000  0.00000000  0.00000000       0.016
   0.03966578  0.00000000  0.00000000       0.094
   0.07933156  0.00000000  0.00000000       0.047
   0.03966578  0.03966578  0.00000000       0.188
   0.07933156  0.03966578  0.00000000       0.188
   0.07933156  0.07933156  0.00000000       0.047
   0.03966578  0.03966578  0.03966578       0.125
   0.07933156  0.03966578  0.03966578       0.188
   0.07933156  0.07933156  0.03966578       0.094
   0.07933156  0.07933156  0.07933156       0.016
 
 k-points in reciprocal lattice and weights: K-Spacing Value to Generate K-Mesh: 0.02
   0.00000000  0.00000000  0.00000000       0.016
   0.25000000  0.00000000  0.00000000       0.094
   0.50000000  0.00000000  0.00000000       0.047
   0.25000000  0.25000000  0.00000000       0.188
   0.50000000  0.25000000  0.00000000       0.188
   0.50000000  0.50000000  0.00000000       0.047
   0.25000000  0.25000000  0.25000000       0.125
   0.50000000  0.25000000  0.25000000       0.188
   0.50000000  0.50000000  0.25000000       0.094
   0.50000000  0.50000000  0.50000000       0.016
 
 position of ions in fractional coordinates (direct lattice) 
   0.00000000  0.00000000  0.00000000
   0.50000000  0.50000000  0.50000000
   0.00000000  0.50000000  0.50000000
   0.50000000  0.00000000  0.50000000
   0.50000000  0.50000000  0.00000000
 
 position of ions in cartesian coordinates  (Angst):
   0.00000000  0.00000000  0.00000000
   3.15133111  3.15133111  3.15133111
   0.00000000  3.15133111  3.15133111
   3.15133111  0.00000000  3.15133111
   3.15133111  3.15133111  0.00000000
 


--------------------------------------------------------------------------------------------------------


 k-point  1 :   0.0000 0.0000 0.0000  plane waves:    4553
 k-point  2 :   0.2500 0.0000 0.0000  plane waves:    4581
 k-point  3 :   0.5000 0.0000 0.0000  plane waves:    4524
 k-point  4 :   0.2500 0.2500 0.0000  plane waves:    4571
 k-point  5 :   0.5000 0.2500 0.0000  plane waves:    4538
 k-point  6 :   0.5000 0.5000 0.0000  plane waves:    4540
 k-point  7 :   0.2500 0.2500 0.2500  plane waves:    4515
 k-point  8 :   0.5000 0.2500 0.2500  plane waves:    4538
 k-point  9 :   0.5000 0.5000 0.2500  plane waves:    4560
 k-point 10 :   0.5000 0.5000 0.5000  plane waves:    4632

 maximum and minimum number of plane-waves per node :      4632     4515

 maximum number of plane-waves:      4632
 maximum index in each direction: 
   IXMAX=   10   IYMAX=   10   IZMAX=   10
   IXMIN=  -10   IYMIN=  -10   IZMIN=  -10


 serial   3D FFT for wavefunctions
 parallel 3D FFT for charge:
    minimum data exchange during FFTs selected (reduces bandwidth)

 
 Radii for the augmentation spheres in the non-local exchange
 for species   1 augmentation radius   1.041 (default was   1.041)
 error exchange integrals (PW-AE in eV) (mean, max) 0.241 0.809 density error[0,qmax] 0.0169
 for species   2 augmentation radius   1.154 (default was   1.154)
 error exchange integrals (PW-AE in eV) (mean, max) 0.688 4.975 density error[0,qmax] 0.0335
 for species   3 augmentation radius   1.188 (default was   1.188)
 error exchange integrals (PW-AE in eV) (mean, max) 0.442 1.981 density error[0,qmax] 0.0207
 Maximum index for augmentation-charges in exchange          925
  SETUP_FOCK is finished

 total amount of memory used by VASP MPI-rank0    59651. kBytes
=======================================================================

   base      :      30000. kBytes
   nonl-proj :      20495. kBytes
   fftplans  :        424. kBytes
   grid      :       3393. kBytes
   one-center:        155. kBytes
   HF        :        388. kBytes
   nonlr-proj:       1772. kBytes
   wavefun   :       3024. kBytes
 
     INWAV:  cpu time    0.3275: real time    0.3345
 charge density for first step will be calculated from the start-wavefunctions


--------------------------------------------------------------------------------------------------------


 Maximum index for augmentation-charges          457 (set IRDMAX)


--------------------------------------------------------------------------------------------------------


 initial charge from wavefunction
    FEWALD:  cpu time    0.0002: real time    0.0002

 The Fermi energy was updated, please check that it is located mid-gap
 values below the HOMO (VB) or above the LUMO (CB) will cause erroneous energies
 E-fermi :   2.2176

 Response functions by sum over occupied states:
 ===============================================
   NOMEGA  =     0    number of frequencies
   NOMEGAR =     0    number of frequencies along real axis
   OMEGAMAX=   0.00   maximum frequency
   OMEGAMIN=   1.21   minimum frequency
   OMEGATL =  61.84   maximum frequency of tail
   CSHIFT  =  0.100   complex shift used in evaluation of response functions


 Energies iw= 
 ============


 Maximum error of frequency grid:  0.0000000E+00
 

IMPORTANT INFORMATION: All symmetrisations will be switched off!
NOSYMM: (Re-)initialisation of all symmetry stuff for point group C_1.

 
 KPOINTS: K-Spacing Value to Generate K-Mesh: 0.02

Automatic generation of k-mesh.
Space group operators:
 irot       det(A)        alpha          n_x          n_y          n_z        tau_x        tau_y        tau_z
    1     1.000000     0.000001     1.000000     0.000000     0.000000     0.000000     0.000000     0.000000
 
 Subroutine IBZKPT returns following result:
 ===========================================
 
 Found     64 irreducible k-points:
 
 Following reciprocal coordinates:
            Coordinates               Weight
  0.000000  0.000000  0.000000      1.000000
  0.250000  0.000000  0.000000      1.000000
  0.500000  0.000000  0.000000      1.000000
 -0.250000  0.000000  0.000000      1.000000
  0.000000  0.250000  0.000000      1.000000
  0.250000  0.250000  0.000000      1.000000
  0.500000  0.250000  0.000000      1.000000
 -0.250000  0.250000  0.000000      1.000000
  0.000000  0.500000  0.000000      1.000000
  0.250000  0.500000  0.000000      1.000000
  0.500000  0.500000  0.000000      1.000000
 -0.250000  0.500000  0.000000      1.000000
  0.000000 -0.250000  0.000000      1.000000
  0.250000 -0.250000  0.000000      1.000000
  0.500000 -0.250000  0.000000      1.000000
 -0.250000 -0.250000  0.000000      1.000000
  0.000000  0.000000  0.250000      1.000000
  0.250000  0.000000  0.250000      1.000000
  0.500000  0.000000  0.250000      1.000000
 -0.250000  0.000000  0.250000      1.000000
  0.000000  0.250000  0.250000      1.000000
  0.250000  0.250000  0.250000      1.000000
  0.500000  0.250000  0.250000      1.000000
 -0.250000  0.250000  0.250000      1.000000
  0.000000  0.500000  0.250000      1.000000
  0.250000  0.500000  0.250000      1.000000
  0.500000  0.500000  0.250000      1.000000
 -0.250000  0.500000  0.250000      1.000000
  0.000000 -0.250000  0.250000      1.000000
  0.250000 -0.250000  0.250000      1.000000
  0.500000 -0.250000  0.250000      1.000000
 -0.250000 -0.250000  0.250000      1.000000
  0.000000  0.000000  0.500000      1.000000
  0.250000  0.000000  0.500000      1.000000
  0.500000  0.000000  0.500000      1.000000
 -0.250000  0.000000  0.500000      1.000000
  0.000000  0.250000  0.500000      1.000000
  0.250000  0.250000  0.500000      1.000000
  0.500000  0.250000  0.500000      1.000000
 -0.250000  0.250000  0.500000      1.000000
  0.000000  0.500000  0.500000      1.000000
  0.250000  0.500000  0.500000      1.000000
  0.500000  0.500000  0.500000      1.000000
 -0.250000  0.500000  0.500000      1.000000
  0.000000 -0.250000  0.500000      1.000000
  0.250000 -0.250000  0.500000      1.000000
  0.500000 -0.250000  0.500000      1.000000
 -0.250000 -0.250000  0.500000      1.000000
  0.000000  0.000000 -0.250000      1.000000
  0.250000  0.000000 -0.250000      1.000000
  0.500000  0.000000 -0.250000      1.000000
 -0.250000  0.000000 -0.250000      1.000000
  0.000000  0.250000 -0.250000      1.000000
  0.250000  0.250000 -0.250000      1.000000
  0.500000  0.250000 -0.250000      1.000000
 -0.250000  0.250000 -0.250000      1.000000
  0.000000  0.500000 -0.250000      1.000000
  0.250000  0.500000 -0.250000      1.000000
  0.500000  0.500000 -0.250000      1.000000
 -0.250000  0.500000 -0.250000      1.000000
  0.000000 -0.250000 -0.250000      1.000000
  0.250000 -0.250000 -0.250000      1.000000
  0.500000 -0.250000 -0.250000      1.000000
 -0.250000 -0.250000 -0.250000      1.000000
 
 Following cartesian coordinates:
            Coordinates               Weight
  0.000000  0.000000  0.000000      1.000000
  0.039666  0.000000  0.000000      1.000000
  0.079332  0.000000  0.000000      1.000000
 -0.039666  0.000000  0.000000      1.000000
  0.000000  0.039666  0.000000      1.000000
  0.039666  0.039666  0.000000      1.000000
  0.079332  0.039666  0.000000      1.000000
 -0.039666  0.039666  0.000000      1.000000
  0.000000  0.079332  0.000000      1.000000
  0.039666  0.079332  0.000000      1.000000
  0.079332  0.079332  0.000000      1.000000
 -0.039666  0.079332  0.000000      1.000000
  0.000000 -0.039666  0.000000      1.000000
  0.039666 -0.039666  0.000000      1.000000
  0.079332 -0.039666  0.000000      1.000000
 -0.039666 -0.039666  0.000000      1.000000
  0.000000  0.000000  0.039666      1.000000
  0.039666  0.000000  0.039666      1.000000
  0.079332  0.000000  0.039666      1.000000
 -0.039666  0.000000  0.039666      1.000000
  0.000000  0.039666  0.039666      1.000000
  0.039666  0.039666  0.039666      1.000000
  0.079332  0.039666  0.039666      1.000000
 -0.039666  0.039666  0.039666      1.000000
  0.000000  0.079332  0.039666      1.000000
  0.039666  0.079332  0.039666      1.000000
  0.079332  0.079332  0.039666      1.000000
 -0.039666  0.079332  0.039666      1.000000
  0.000000 -0.039666  0.039666      1.000000
  0.039666 -0.039666  0.039666      1.000000
  0.079332 -0.039666  0.039666      1.000000
 -0.039666 -0.039666  0.039666      1.000000
  0.000000  0.000000  0.079332      1.000000
  0.039666  0.000000  0.079332      1.000000
  0.079332  0.000000  0.079332      1.000000
 -0.039666  0.000000  0.079332      1.000000
  0.000000  0.039666  0.079332      1.000000
  0.039666  0.039666  0.079332      1.000000
  0.079332  0.039666  0.079332      1.000000
 -0.039666  0.039666  0.079332      1.000000
  0.000000  0.079332  0.079332      1.000000
  0.039666  0.079332  0.079332      1.000000
  0.079332  0.079332  0.079332      1.000000
 -0.039666  0.079332  0.079332      1.000000
  0.000000 -0.039666  0.079332      1.000000
  0.039666 -0.039666  0.079332      1.000000
  0.079332 -0.039666  0.079332      1.000000
 -0.039666 -0.039666  0.079332      1.000000
  0.000000  0.000000 -0.039666      1.000000
  0.039666  0.000000 -0.039666      1.000000
  0.079332  0.000000 -0.039666      1.000000
 -0.039666  0.000000 -0.039666      1.000000
  0.000000  0.039666 -0.039666      1.000000
  0.039666  0.039666 -0.039666      1.000000
  0.079332  0.039666 -0.039666      1.000000
 -0.039666  0.039666 -0.039666      1.000000
  0.000000  0.079332 -0.039666      1.000000
  0.039666  0.079332 -0.039666      1.000000
  0.079332  0.079332 -0.039666      1.000000
 -0.039666  0.079332 -0.039666      1.000000
  0.000000 -0.039666 -0.039666      1.000000
  0.039666 -0.039666 -0.039666      1.000000
  0.079332 -0.039666 -0.039666      1.000000
 -0.039666 -0.039666 -0.039666      1.000000
 
 files read and symmetry switched off, memory is now:
 total amount of memory used by VASP MPI-rank0   184646. kBytes
=======================================================================

   base      :      30000. kBytes
   nonl-proj :     129157. kBytes
   fftplans  :        424. kBytes
   grid      :       3393. kBytes
   one-center:        155. kBytes
   HF        :        388. kBytes
   nonlr-proj:       1772. kBytes
   wavefun   :      19357. kBytes
 
 Basis sets for responsefunctions:
 =================================
 k-point  1 :   0.0000 0.0000 0.0000  plane waves:    2517
 k-point  2 :   0.2500 0.0000 0.0000  plane waves:    2485
 k-point  3 :   0.5000 0.0000 0.0000  plane waves:    2496
 k-point  4 :   0.2500 0.2500 0.0000  plane waves:    2468
 k-point  5 :   0.5000 0.2500 0.0000  plane waves:    2494
 k-point  6 :   0.5000 0.5000 0.0000  plane waves:    2464
 k-point  7 :   0.2500 0.2500 0.2500  plane waves:    2470
 k-point  8 :   0.5000 0.2500 0.2500  plane waves:    2480
 k-point  9 :   0.5000 0.5000 0.2500  plane waves:    2468
 k-point 10 :   0.5000 0.5000 0.5000  plane waves:    2440
 k-point 11 :  -0.2500 0.0000 0.0000  plane waves:    2485
 k-point 12 :   0.0000 0.2500 0.0000  plane waves:    2485
 k-point 13 :  -0.2500 0.2500 0.0000  plane waves:    2468
 k-point 14 :   0.0000 0.5000 0.0000  plane waves:    2496
 k-point 15 :   0.2500-0.5000 0.0000  plane waves:    2494
 k-point 16 :  -0.2500 0.5000 0.0000  plane waves:    2494
 k-point 17 :   0.0000-0.2500 0.0000  plane waves:    2485
 k-point 18 :   0.2500-0.2500 0.0000  plane waves:    2468
 k-point 19 :  -0.5000-0.2500 0.0000  plane waves:    2494
 k-point 20 :  -0.2500-0.2500 0.0000  plane waves:    2468
 k-point 21 :   0.0000 0.0000 0.2500  plane waves:    2485
 k-point 22 :   0.2500 0.0000 0.2500  plane waves:    2468
 k-point 23 :  -0.5000 0.0000 0.2500  plane waves:    2494
 k-point 24 :  -0.2500 0.0000 0.2500  plane waves:    2468
 k-point 25 :   0.0000 0.2500 0.2500  plane waves:    2468
 k-point 26 :  -0.2500 0.2500 0.2500  plane waves:    2470
 k-point 27 :   0.0000 0.5000 0.2500  plane waves:    2494
 k-point 28 :   0.2500 0.5000 0.2500  plane waves:    2480
 k-point 29 :  -0.2500 0.5000 0.2500  plane waves:    2480
 k-point 30 :   0.0000-0.2500 0.2500  plane waves:    2468
 k-point 31 :   0.2500-0.2500 0.2500  plane waves:    2470
 k-point 32 :  -0.5000-0.2500 0.2500  plane waves:    2480
 k-point 33 :  -0.2500-0.2500 0.2500  plane waves:    2470
 k-point 34 :   0.0000 0.0000 0.5000  plane waves:    2496
 k-point 35 :   0.2500 0.0000 0.5000  plane waves:    2494
 k-point 36 :   0.5000 0.0000 0.5000  plane waves:    2464
 k-point 37 :  -0.2500 0.0000-0.5000  plane waves:    2494
 k-point 38 :   0.0000 0.2500 0.5000  plane waves:    2494
 k-point 39 :   0.2500 0.2500 0.5000  plane waves:    2480
 k-point 40 :   0.5000 0.2500 0.5000  plane waves:    2468
 k-point 41 :  -0.2500 0.2500 0.5000  plane waves:    2480
 k-point 42 :   0.0000 0.5000 0.5000  plane waves:    2464
 k-point 43 :   0.2500 0.5000 0.5000  plane waves:    2468
 k-point 44 :  -0.2500-0.5000-0.5000  plane waves:    2468
 k-point 45 :   0.0000-0.2500-0.5000  plane waves:    2494
 k-point 46 :   0.2500-0.2500-0.5000  plane waves:    2480
 k-point 47 :  -0.5000-0.2500-0.5000  plane waves:    2468
 k-point 48 :  -0.2500-0.2500-0.5000  plane waves:    2480
 k-point 49 :   0.0000 0.0000-0.2500  plane waves:    2485
 k-point 50 :   0.2500 0.0000-0.2500  plane waves:    2468
 k-point 51 :   0.5000 0.0000-0.2500  plane waves:    2494
 k-point 52 :  -0.2500 0.0000-0.2500  plane waves:    2468
 k-point 53 :   0.0000 0.2500-0.2500  plane waves:    2468
 k-point 54 :   0.2500 0.2500-0.2500  plane waves:    2470
 k-point 55 :   0.5000 0.2500-0.2500  plane waves:    2480
 k-point 56 :  -0.2500 0.2500-0.2500  plane waves:    2470
 k-point 57 :   0.0000-0.5000-0.2500  plane waves:    2494
 k-point 58 :   0.2500-0.5000-0.2500  plane waves:    2480
 k-point 59 :  -0.5000-0.5000-0.2500  plane waves:    2468
 k-point 60 :  -0.2500-0.5000-0.2500  plane waves:    2480
 k-point 61 :   0.0000-0.2500-0.2500  plane waves:    2468
 k-point 62 :   0.2500-0.2500-0.2500  plane waves:    2470
 k-point 63 :  -0.5000-0.2500-0.2500  plane waves:    2480
 k-point 64 :  -0.2500-0.2500-0.2500  plane waves:    2470

 maximum and minimum number of plane-waves per node :      2517     2440

 maximum number of plane-waves:      2517
 maximum index in each direction: 
   IXMAX=    8   IYMAX=    8   IZMAX=    8
   IXMIN=   -8   IYMIN=   -8   IZMIN=   -8

 exchange correlation table for  LEXCH =        8
   RHO(1)=    0.500       N(1)  =     2000
   RHO(2)=  100.500       N(2)  =     4000
NQ=   1    0.0000    0.0000    0.0000, 
 parallelization over k-points

 Bands included in the BSE
 VB(min)=    1  VB(max)=   19
 CB(min)=   20  CB(max)=   53

 simple RPA calculation, excitonic effects (ladders) are not included
 BSE (scaLAPACK) attempting allocation of   3.218 Gbyte  rank=  82688

 total amount of memory used by VASP MPI-rank0  3402201. kBytes
=======================================================================

   base      :      30000. kBytes
   nonl-proj :     129157. kBytes
   fftplans  :        424. kBytes
   grid      :       3393. kBytes
   one-center:        155. kBytes
   HF        :        388. kBytes
   nonlr-proj:       1772. kBytes
   wavefun   :      19357. kBytes
   response  :          0. kBytes
   bse       :    3217555. kBytes
 
 BLAS level 3 operations / number of FFT's:
 number of FFTs for wave wavefunctions              23296. fft
 number of operations in four-orbital integrals   -1542.71 Gflops,  21333504. fft
    BSESET:  cpu time  918.5069: real time  921.8808
    BSESUM:  cpu time    0.0000: real time    0.0001

 total amount of memory used by VASP MPI-rank0  3376167. kBytes
=======================================================================

   base      :      30000. kBytes
   nonl-proj :     129157. kBytes
   fftplans  :        424. kBytes
   grid      :       3393. kBytes
   one-center:        155. kBytes
   HF        :        388. kBytes
   nonlr-proj:       1772. kBytes
   wavefun   :          0. kBytes
   response  :          0. kBytes
   bse       :    3210878. kBytes
 
