PROCAR lm decomposed
# of k-points:   10         # of bands:   34         # of ions:    5

 k-point     1 :    0.00000000 0.00000000 0.00000000     weight = 0.01562500

band     1 # energy  -15.17420804 # occ.  1.00000000
 
ion      s     py     pz     px    dxy    dyz    dz2    dxz  x2-y2    tot
    1  0.000  0.000  0.000  0.000  0.000  0.000  0.000  0.000  0.000  0.000
    2  0.000  0.000  0.000  0.000  0.000  0.000  0.965  0.000  0.000  0.965
    3  0.001  0.000  0.000  0.000  0.000  0.000  0.000  0.000  0.000  0.001
    4  0.001  0.000  0.000  0.000  0.000  0.000  0.000  0.000  0.000  0.001
    5  0.004  0.000  0.000  0.000  0.000  0.000  0.000  0.000  0.000  0.005
tot    0.007  0.000  0.000  0.000  0.000  0.000  0.966  0.000  0.000  0.972
 
band     2 # energy  -15.17420804 # occ.  1.00000000
 
ion      s     py     pz     px    dxy    dyz    dz2    dxz  x2-y2    tot
    1  0.000  0.000  0.000  0.000  0.000  0.000  0.000  0.000  0.000  0.000
    2  0.000  0.000  0.000  0.000  0.000  0.000  0.000  0.000  0.965  0.965
    3  0.003  0.000  0.000  0.000  0.000  0.000  0.000  0.000  0.000  0.004
    4  0.003  0.000  0.000  0.000  0.000  0.000  0.000  0.000  0.000  0.004
    5  0.000  0.000  0.000  0.000  0.000  0.000  0.000  0.000  0.000  0.000
tot    0.007  0.000  0.000  0.000  0.000  0.000  0.000  0.000  0.966  0.972
 
band     3 # energy  -15.11001974 # occ.  1.00000000
 
ion      s     py     pz     px    dxy    dyz    dz2    dxz  x2-y2    tot
    1  0.000  0.000  0.000  0.000  0.000  0.000  0.000  0.000  0.000  0.000
    2  0.000  0.000  0.000  0.000  0.135  0.422  0.000  0.422  0.000  0.979
    3  0.000  0.000  0.000  0.000  0.000  0.000  0.000  0.000  0.000  0.000
    4  0.000  0.000  0.000  0.000  0.000  0.000  0.000  0.000  0.000  0.000
    5  0.000  0.000  0.000  0.000  0.000  0.000  0.000  0.000  0.000  0.000
tot    0.000  0.000  0.000  0.000  0.135  0.422  0.000  0.422  0.000  0.979
 
band     4 # energy  -15.11001974 # occ.  1.00000000
 
ion      s     py     pz     px    dxy    dyz    dz2    dxz  x2-y2    tot
    1  0.000  0.000  0.000  0.000  0.000  0.000  0.000  0.000  0.000  0.000
    2  0.000  0.000  0.000  0.000  0.000  0.489  0.000  0.489  0.000  0.979
    3  0.000  0.000  0.000  0.000  0.000  0.000  0.000  0.000  0.000  0.000
    4  0.000  0.000  0.000  0.000  0.000  0.000  0.000  0.000  0.000  0.000
    5  0.000  0.000  0.000  0.000  0.000  0.000  0.000  0.000  0.000  0.000
tot    0.000  0.000  0.000  0.000  0.000  0.489  0.000  0.489  0.000  0.979
 
band     5 # energy  -15.11001973 # occ.  1.00000000
 
ion      s     py     pz     px    dxy    dyz    dz2    dxz  x2-y2    tot
    1  0.000  0.000  0.000  0.000  0.000  0.000  0.000  0.000  0.000  0.000
    2  0.000  0.000  0.000  0.000  0.844  0.068  0.000  0.068  0.000  0.979
    3  0.000  0.000  0.000  0.000  0.000  0.000  0.000  0.000  0.000  0.000
    4  0.000  0.000  0.000  0.000  0.000  0.000  0.000  0.000  0.000  0.000
    5  0.000  0.000  0.000  0.000  0.000  0.000  0.000  0.000  0.000  0.000
tot    0.000  0.000  0.000  0.000  0.844  0.068  0.000  0.068  0.000  0.979
 
band     6 # energy  -10.79299021 # occ.  1.00000000
 
ion      s     py     pz     px    dxy    dyz    dz2    dxz  x2-y2    tot
    1  0.000  0.000  0.000  0.000  0.000  0.000  0.000  0.000  0.000  0.000
    2  0.066  0.000  0.000  0.000  0.000  0.000  0.000  0.000  0.000  0.066
    3  0.210  0.000  0.000  0.000  0.000  0.000  0.000  0.000  0.000  0.210
    4  0.210  0.000  0.000  0.000  0.000  0.000  0.000  0.000  0.000  0.210
    5  0.210  0.000  0.000  0.000  0.000  0.000  0.000  0.000  0.000  0.210
tot    0.697  0.000  0.000  0.000  0.000  0.000  0.000  0.000  0.000  0.697
 
band     7 # energy   -9.98314600 # occ.  1.00000000
 
ion      s     py     pz     px    dxy    dyz    dz2    dxz  x2-y2    tot
    1  0.000  0.000  0.000  0.000  0.000  0.000  0.000  0.000  0.000  0.000
    2  0.000  0.000  0.000  0.000  0.000  0.000  0.015  0.000  0.000  0.015
    3  0.125  0.000  0.000  0.000  0.000  0.000  0.000  0.000  0.000  0.125
    4  0.126  0.000  0.000  0.000  0.000  0.000  0.000  0.000  0.000  0.126
    5  0.503  0.000  0.000  0.000  0.000  0.000  0.000  0.000  0.000  0.503
tot    0.755  0.000  0.000  0.000  0.000  0.000  0.015  0.000  0.000  0.770
 
band     8 # energy   -9.98314600 # occ.  1.00000000
 
ion      s     py     pz     px    dxy    dyz    dz2    dxz  x2-y2    tot
    1  0.000  0.000  0.000  0.000  0.000  0.000  0.000  0.000  0.000  0.000
    2  0.000  0.000  0.000  0.000  0.000  0.000  0.000  0.000  0.015  0.015
    3  0.378  0.000  0.000  0.000  0.000  0.000  0.000  0.000  0.000  0.378
    4  0.377  0.000  0.000  0.000  0.000  0.000  0.000  0.000  0.000  0.377
    5  0.000  0.000  0.000  0.000  0.000  0.000  0.000  0.000  0.000  0.000
tot    0.755  0.000  0.000  0.000  0.000  0.000  0.000  0.000  0.015  0.770
 
band     9 # energy   -5.32952950 # occ.  1.00000000
 
ion      s     py     pz     px    dxy    dyz    dz2    dxz  x2-y2    tot
    1  0.000  0.000  0.000  0.000  0.000  0.000  0.000  0.000  0.000  0.000
    2  0.657  0.000  0.000  0.000  0.000  0.000  0.000  0.000  0.000  0.657
    3  0.039  0.000  0.000  0.000  0.000  0.000  0.000  0.000  0.001  0.041
    4  0.039  0.000  0.000  0.000  0.000  0.000  0.000  0.000  0.001  0.041
    5  0.039  0.000  0.000  0.000  0.000  0.000  0.002  0.000  0.000  0.041
tot    0.775  0.000  0.000  0.000  0.000  0.000  0.003  0.000  0.003  0.781
 
band    10 # energy   -2.39126421 # occ.  1.00000000
 
ion      s     py     pz     px    dxy    dyz    dz2    dxz  x2-y2    tot
    1  0.327  0.000  0.000  0.000  0.000  0.000  0.000  0.000  0.000  0.327
    2  0.000  0.000  0.000  0.000  0.000  0.000  0.000  0.000  0.000  0.000
    3  0.003  0.000  0.000  0.000  0.000  0.000  0.000  0.000  0.000  0.003
    4  0.003  0.000  0.000  0.000  0.000  0.000  0.000  0.000  0.000  0.003
    5  0.003  0.000  0.000  0.000  0.000  0.000  0.000  0.000  0.000  0.003
tot    0.337  0.000  0.000  0.000  0.000  0.000  0.000  0.000  0.000  0.337
 
band    11 # energy   -2.09827792 # occ.  1.00000000
 
ion      s     py     pz     px    dxy    dyz    dz2    dxz  x2-y2    tot
    1  0.000  0.000  0.000  0.000  0.000  0.000  0.000  0.000  0.000  0.001
    2  0.000  0.011  0.081  0.011  0.000  0.000  0.000  0.000  0.000  0.103
    3  0.000  0.004  0.026  0.030  0.000  0.000  0.000  0.000  0.000  0.059
    4  0.000  0.030  0.026  0.004  0.000  0.000  0.000  0.000  0.000  0.059
    5  0.000  0.004  0.220  0.004  0.000  0.000  0.000  0.000  0.000  0.227
tot    0.000  0.048  0.354  0.048  0.000  0.000  0.000  0.000  0.000  0.450
 
band    12 # energy   -2.09827792 # occ.  1.00000000
 
ion      s     py     pz     px    dxy    dyz    dz2    dxz  x2-y2    tot
    1  0.000  0.000  0.000  0.000  0.000  0.000  0.000  0.000  0.000  0.001
    2  0.000  0.052  0.000  0.052  0.000  0.000  0.000  0.000  0.000  0.103
    3  0.000  0.017  0.000  0.140  0.000  0.000  0.000  0.000  0.000  0.157
    4  0.000  0.140  0.000  0.016  0.000  0.000  0.000  0.000  0.000  0.157
    5  0.000  0.017  0.000  0.016  0.000  0.000  0.000  0.000  0.000  0.033
tot    0.000  0.225  0.000  0.225  0.000  0.000  0.000  0.000  0.000  0.450
 
band    13 # energy   -2.09827792 # occ.  1.00000000
 
ion      s     py     pz     px    dxy    dyz    dz2    dxz  x2-y2    tot
    1  0.000  0.000  0.000  0.000  0.000  0.000  0.000  0.000  0.000  0.001
    2  0.000  0.041  0.022  0.041  0.000  0.000  0.000  0.000  0.000  0.103
    3  0.000  0.013  0.007  0.110  0.000  0.000  0.000  0.000  0.000  0.130
    4  0.000  0.110  0.007  0.013  0.000  0.000  0.000  0.000  0.000  0.130
    5  0.000  0.013  0.060  0.013  0.000  0.000  0.000  0.000  0.000  0.086
tot    0.000  0.177  0.096  0.177  0.000  0.000  0.000  0.000  0.000  0.450
 
band    14 # energy    0.18499698 # occ.  1.00000000
 
ion      s     py     pz     px    dxy    dyz    dz2    dxz  x2-y2    tot
    1  0.000  0.000  0.005  0.000  0.000  0.000  0.000  0.000  0.000  0.006
    2  0.000  0.001  0.009  0.001  0.000  0.000  0.000  0.000  0.000  0.011
    3  0.000  0.012  0.169  0.007  0.000  0.000  0.000  0.000  0.000  0.188
    4  0.000  0.007  0.169  0.012  0.000  0.000  0.000  0.000  0.000  0.188
    5  0.000  0.012  0.099  0.012  0.000  0.000  0.000  0.000  0.000  0.123
tot    0.000  0.032  0.452  0.032  0.000  0.000  0.000  0.000  0.000  0.516
 
band    15 # energy    0.18499698 # occ.  1.00000000
 
ion      s     py     pz     px    dxy    dyz    dz2    dxz  x2-y2    tot
    1  0.000  0.003  0.000  0.003  0.000  0.000  0.000  0.000  0.000  0.006
    2  0.000  0.005  0.000  0.005  0.000  0.000  0.000  0.000  0.000  0.011
    3  0.000  0.097  0.000  0.056  0.000  0.000  0.000  0.000  0.000  0.153
    4  0.000  0.056  0.000  0.096  0.000  0.000  0.000  0.000  0.000  0.153
    5  0.000  0.097  0.000  0.096  0.000  0.000  0.000  0.000  0.000  0.193
tot    0.000  0.258  0.000  0.258  0.000  0.000  0.000  0.000  0.000  0.516
 
band    16 # energy    0.18499698 # occ.  1.00000000
 
ion      s     py     pz     px    dxy    dyz    dz2    dxz  x2-y2    tot
    1  0.000  0.003  0.001  0.003  0.000  0.000  0.000  0.000  0.000  0.006
    2  0.000  0.005  0.001  0.005  0.000  0.000  0.000  0.000  0.000  0.011
    3  0.000  0.084  0.024  0.049  0.000  0.000  0.000  0.000  0.000  0.158
    4  0.000  0.049  0.024  0.085  0.000  0.000  0.000  0.000  0.000  0.158
    5  0.000  0.084  0.014  0.085  0.000  0.000  0.000  0.000  0.000  0.183
tot    0.000  0.226  0.064  0.226  0.000  0.000  0.000  0.000  0.000  0.516
 
band    17 # energy    0.20763952 # occ.  1.00000000
 
ion      s     py     pz     px    dxy    dyz    dz2    dxz  x2-y2    tot
    1  0.000  0.000  0.000  0.000  0.000  0.000  0.000  0.000  0.000  0.000
    2  0.000  0.000  0.000  0.000  0.000  0.000  0.000  0.000  0.000  0.000
    3  0.000  0.006  0.251  0.000  0.000  0.000  0.000  0.000  0.000  0.257
    4  0.000  0.000  0.251  0.006  0.000  0.000  0.000  0.000  0.000  0.257
    5  0.000  0.006  0.000  0.006  0.000  0.000  0.000  0.000  0.000  0.011
tot    0.000  0.011  0.502  0.011  0.000  0.000  0.000  0.000  0.000  0.525
 
band    18 # energy    0.20763952 # occ.  1.00000000
 
ion      s     py     pz     px    dxy    dyz    dz2    dxz  x2-y2    tot
    1  0.000  0.000  0.000  0.000  0.000  0.000  0.000  0.000  0.000  0.000
    2  0.000  0.000  0.000  0.000  0.000  0.000  0.000  0.000  0.000  0.000
    3  0.000  0.131  0.000  0.000  0.000  0.000  0.000  0.000  0.000  0.131
    4  0.000  0.000  0.000  0.131  0.000  0.000  0.000  0.000  0.000  0.131
    5  0.000  0.131  0.000  0.131  0.000  0.000  0.000  0.000  0.000  0.262
tot    0.000  0.263  0.000  0.262  0.000  0.000  0.000  0.000  0.000  0.525
 
band    19 # energy    0.20763952 # occ.  1.00000000
 
ion      s     py     pz     px    dxy    dyz    dz2    dxz  x2-y2    tot
    1  0.000  0.000  0.000  0.000  0.000  0.000  0.000  0.000  0.000  0.000
    2  0.000  0.000  0.000  0.000  0.000  0.000  0.000  0.000  0.000  0.000
    3  0.000  0.125  0.011  0.000  0.000  0.000  0.000  0.000  0.000  0.137
    4  0.000  0.000  0.011  0.126  0.000  0.000  0.000  0.000  0.000  0.137
    5  0.000  0.125  0.000  0.126  0.000  0.000  0.000  0.000  0.000  0.251
tot    0.000  0.251  0.022  0.252  0.000  0.000  0.000  0.000  0.000  0.525
 
band    20 # energy    3.61662455 # occ.  0.00000000
 
ion      s     py     pz     px    dxy    dyz    dz2    dxz  x2-y2    tot
    1  0.000  0.004  0.190  0.004  0.000  0.000  0.000  0.000  0.000  0.199
    2  0.000  0.000  0.002  0.000  0.000  0.000  0.000  0.000  0.000  0.002
    3  0.000  0.001  0.030  0.000  0.000  0.000  0.000  0.000  0.000  0.031
    4  0.000  0.000  0.030  0.001  0.000  0.000  0.000  0.000  0.000  0.031
    5  0.000  0.001  0.001  0.001  0.000  0.000  0.000  0.000  0.000  0.003
tot    0.000  0.006  0.253  0.006  0.000  0.000  0.000  0.000  0.000  0.265
 
band    21 # energy    3.61662455 # occ.  0.00000000
 
ion      s     py     pz     px    dxy    dyz    dz2    dxz  x2-y2    tot
    1  0.000  0.100  0.000  0.099  0.000  0.000  0.000  0.000  0.000  0.199
    2  0.000  0.001  0.000  0.001  0.000  0.000  0.000  0.000  0.000  0.002
    3  0.000  0.016  0.000  0.001  0.000  0.000  0.000  0.000  0.000  0.016
    4  0.000  0.001  0.000  0.016  0.000  0.000  0.000  0.000  0.000  0.016
    5  0.000  0.016  0.000  0.016  0.000  0.000  0.000  0.000  0.000  0.031
tot    0.000  0.132  0.000  0.132  0.000  0.000  0.000  0.000  0.000  0.265
 
band    22 # energy    3.61662455 # occ.  0.00000000
 
ion      s     py     pz     px    dxy    dyz    dz2    dxz  x2-y2    tot
    1  0.000  0.095  0.009  0.095  0.000  0.000  0.000  0.000  0.000  0.199
    2  0.000  0.001  0.000  0.001  0.000  0.000  0.000  0.000  0.000  0.002
    3  0.000  0.015  0.001  0.001  0.000  0.000  0.000  0.000  0.000  0.017
    4  0.000  0.001  0.001  0.015  0.000  0.000  0.000  0.000  0.000  0.017
    5  0.000  0.015  0.000  0.015  0.000  0.000  0.000  0.000  0.000  0.030
tot    0.000  0.126  0.011  0.127  0.000  0.000  0.000  0.000  0.000  0.265
 
band    23 # energy    6.30154535 # occ.  0.00000000
 
ion      s     py     pz     px    dxy    dyz    dz2    dxz  x2-y2    tot
    1  0.000  0.000  0.000  0.000  0.000  0.000  0.000  0.000  0.000  0.000
    2  0.000  0.000  0.000  0.000  0.000  0.000  0.000  0.000  0.000  0.000
    3  0.003  0.000  0.000  0.000  0.000  0.000  0.011  0.000  0.009  0.023
    4  0.003  0.000  0.000  0.000  0.000  0.000  0.011  0.000  0.009  0.023
    5  0.013  0.000  0.000  0.000  0.000  0.000  0.003  0.000  0.000  0.016
tot    0.019  0.000  0.000  0.000  0.000  0.000  0.026  0.000  0.018  0.063
 
band    24 # energy    6.30154535 # occ.  0.00000000
 
ion      s     py     pz     px    dxy    dyz    dz2    dxz  x2-y2    tot
    1  0.000  0.000  0.000  0.000  0.000  0.000  0.000  0.000  0.000  0.000
    2  0.000  0.000  0.000  0.000  0.000  0.000  0.000  0.000  0.000  0.000
    3  0.010  0.000  0.000  0.000  0.000  0.000  0.009  0.000  0.000  0.019
    4  0.010  0.000  0.000  0.000  0.000  0.000  0.009  0.000  0.000  0.019
    5  0.000  0.000  0.000  0.000  0.000  0.000  0.000  0.000  0.026  0.026
tot    0.019  0.000  0.000  0.000  0.000  0.000  0.018  0.000  0.026  0.063
 
band    25 # energy    6.55631885 # occ.  0.00000000
 
ion      s     py     pz     px    dxy    dyz    dz2    dxz  x2-y2    tot
    1  0.000  0.000  0.000  0.000  0.000  0.000  0.000  0.000  0.000  0.000
    2  0.000  0.000  0.000  0.000  0.004  0.012  0.000  0.012  0.000  0.028
    3  0.000  0.000  0.000  0.000  0.005  0.008  0.000  0.015  0.000  0.028
    4  0.000  0.000  0.000  0.000  0.005  0.015  0.000  0.008  0.000  0.028
    5  0.000  0.000  0.000  0.000  0.003  0.015  0.000  0.015  0.000  0.032
tot    0.000  0.000  0.000  0.000  0.017  0.049  0.000  0.049  0.000  0.116
 
band    26 # energy    6.55631885 # occ.  0.00000000
 
ion      s     py     pz     px    dxy    dyz    dz2    dxz  x2-y2    tot
    1  0.000  0.000  0.000  0.000  0.000  0.000  0.000  0.000  0.000  0.000
    2  0.000  0.000  0.000  0.000  0.000  0.014  0.000  0.014  0.000  0.028
    3  0.000  0.000  0.000  0.000  0.000  0.009  0.000  0.017  0.000  0.027
    4  0.000  0.000  0.000  0.000  0.000  0.017  0.000  0.009  0.000  0.027
    5  0.000  0.000  0.000  0.000  0.000  0.017  0.000  0.017  0.000  0.035
tot    0.000  0.000  0.000  0.000  0.000  0.058  0.000  0.058  0.000  0.116
 
band    27 # energy    6.55631885 # occ.  0.00000000
 
ion      s     py     pz     px    dxy    dyz    dz2    dxz  x2-y2    tot
    1  0.000  0.000  0.000  0.000  0.000  0.000  0.000  0.000  0.000  0.000
    2  0.000  0.000  0.000  0.000  0.024  0.002  0.000  0.002  0.000  0.028
    3  0.000  0.000  0.000  0.000  0.030  0.001  0.000  0.003  0.000  0.033
    4  0.000  0.000  0.000  0.000  0.030  0.003  0.000  0.001  0.000  0.033
    5  0.000  0.000  0.000  0.000  0.016  0.003  0.000  0.003  0.000  0.021
tot    0.000  0.000  0.000  0.000  0.099  0.009  0.000  0.009  0.000  0.116
 
band    28 # energy    6.60634694 # occ.  0.00000000
 
ion      s     py     pz     px    dxy    dyz    dz2    dxz  x2-y2    tot
    1  0.087  0.000  0.000  0.000  0.000  0.000  0.000  0.000  0.000  0.087
    2  0.003  0.000  0.000  0.000  0.000  0.000  0.000  0.000  0.000  0.003
    3  0.027  0.000  0.000  0.000  0.000  0.000  0.001  0.000  0.004  0.032
    4  0.027  0.000  0.000  0.000  0.000  0.000  0.001  0.000  0.004  0.032
    5  0.027  0.000  0.000  0.000  0.000  0.000  0.005  0.000  0.000  0.032
tot    0.170  0.000  0.000  0.000  0.000  0.000  0.008  0.000  0.008  0.185
 
band    29 # energy    7.22638457 # occ.  0.00000000
 
ion      s     py     pz     px    dxy    dyz    dz2    dxz  x2-y2    tot
    1  0.000  0.000  0.000  0.000  0.000  0.000  0.000  0.000  0.000  0.001
    2  0.000  0.144  0.106  0.144  0.000  0.000  0.000  0.000  0.000  0.393
    3  0.000  0.004  0.003  0.087  0.000  0.000  0.000  0.000  0.000  0.094
    4  0.000  0.087  0.003  0.004  0.000  0.000  0.000  0.000  0.000  0.094
    5  0.000  0.004  0.064  0.004  0.000  0.000  0.000  0.000  0.000  0.072
tot    0.000  0.239  0.176  0.239  0.000  0.000  0.000  0.000  0.000  0.654
 
band    30 # energy    7.22638457 # occ.  0.00000000
 
ion      s     py     pz     px    dxy    dyz    dz2    dxz  x2-y2    tot
    1  0.000  0.000  0.000  0.000  0.000  0.000  0.000  0.000  0.000  0.001
    2  0.000  0.197  0.000  0.197  0.000  0.000  0.000  0.000  0.000  0.393
    3  0.000  0.006  0.000  0.119  0.000  0.000  0.000  0.000  0.000  0.124
    4  0.000  0.119  0.000  0.006  0.000  0.000  0.000  0.000  0.000  0.124
    5  0.000  0.006  0.000  0.006  0.000  0.000  0.000  0.000  0.000  0.011
tot    0.000  0.327  0.000  0.327  0.000  0.000  0.000  0.000  0.000  0.654
 
band    31 # energy    7.22638457 # occ.  0.00000000
 
ion      s     py     pz     px    dxy    dyz    dz2    dxz  x2-y2    tot
    1  0.000  0.000  0.000  0.000  0.000  0.000  0.000  0.000  0.000  0.001
    2  0.000  0.053  0.287  0.053  0.000  0.000  0.000  0.000  0.000  0.393
    3  0.000  0.002  0.008  0.032  0.000  0.000  0.000  0.000  0.000  0.042
    4  0.000  0.032  0.008  0.002  0.000  0.000  0.000  0.000  0.000  0.042
    5  0.000  0.002  0.174  0.002  0.000  0.000  0.000  0.000  0.000  0.177
tot    0.000  0.088  0.478  0.088  0.000  0.000  0.000  0.000  0.000  0.654
 
band    32 # energy    9.24472904 # occ.  0.00000000
 
ion      s     py     pz     px    dxy    dyz    dz2    dxz  x2-y2    tot
    1  0.000  0.000  0.000  0.000  0.000  0.000  0.000  0.000  0.000  0.000
    2  0.000  0.000  0.000  0.000  0.002  0.009  0.000  0.009  0.000  0.020
    3  0.000  0.000  0.000  0.000  0.003  0.024  0.000  0.015  0.000  0.042
    4  0.000  0.000  0.000  0.000  0.003  0.015  0.000  0.024  0.000  0.042
    5  0.000  0.000  0.000  0.000  0.005  0.015  0.000  0.015  0.000  0.035
tot    0.000  0.000  0.000  0.000  0.013  0.062  0.000  0.063  0.000  0.138
 
band    33 # energy    9.24472904 # occ.  0.00000000
 
ion      s     py     pz     px    dxy    dyz    dz2    dxz  x2-y2    tot
    1  0.000  0.000  0.000  0.000  0.000  0.000  0.000  0.000  0.000  0.000
    2  0.000  0.000  0.000  0.000  0.000  0.010  0.000  0.010  0.000  0.020
    3  0.000  0.000  0.000  0.000  0.000  0.027  0.000  0.016  0.000  0.043
    4  0.000  0.000  0.000  0.000  0.000  0.016  0.000  0.026  0.000  0.043
    5  0.000  0.000  0.000  0.000  0.000  0.016  0.000  0.016  0.000  0.033
tot    0.000  0.000  0.000  0.000  0.000  0.069  0.000  0.069  0.000  0.138
 
band    34 # energy    9.24472904 # occ.  0.00000000
 
ion      s     py     pz     px    dxy    dyz    dz2    dxz  x2-y2    tot
    1  0.000  0.000  0.000  0.000  0.000  0.000  0.000  0.000  0.000  0.000
    2  0.000  0.000  0.000  0.000  0.018  0.001  0.000  0.001  0.000  0.020
    3  0.000  0.000  0.000  0.000  0.030  0.002  0.000  0.002  0.000  0.034
    4  0.000  0.000  0.000  0.000  0.030  0.002  0.000  0.003  0.000  0.034
    5  0.000  0.000  0.000  0.000  0.048  0.002  0.000  0.002  0.000  0.051
tot    0.000  0.000  0.000  0.000  0.125  0.006  0.000  0.007  0.000  0.138
 

 k-point     2 :    0.25000000 0.00000000 0.00000000     weight = 0.09375000

band     1 # energy  -15.17420440 # occ.  1.00000000
 
ion      s     py     pz     px    dxy    dyz    dz2    dxz  x2-y2    tot
    1  0.000  0.000  0.000  0.000  0.000  0.000  0.000  0.000  0.000  0.000
    2  0.000  0.000  0.000  0.000  0.000  0.000  0.724  0.000  0.241  0.965
    3  0.000  0.000  0.000  0.000  0.000  0.000  0.000  0.000  0.000  0.000
    4  0.003  0.000  0.000  0.000  0.000  0.000  0.000  0.000  0.000  0.004
    5  0.003  0.000  0.000  0.000  0.000  0.000  0.000  0.000  0.000  0.004
tot    0.007  0.000  0.000  0.000  0.000  0.000  0.724  0.000  0.241  0.972
 
band     2 # energy  -15.16778352 # occ.  1.00000000
 
ion      s     py     pz     px    dxy    dyz    dz2    dxz  x2-y2    tot
    1  0.000  0.000  0.000  0.000  0.000  0.000  0.000  0.000  0.000  0.000
    2  0.000  0.000  0.000  0.000  0.000  0.000  0.242  0.000  0.726  0.968
    3  0.002  0.000  0.000  0.001  0.000  0.000  0.000  0.000  0.000  0.003
    4  0.001  0.000  0.000  0.000  0.000  0.000  0.000  0.000  0.000  0.001
    5  0.001  0.000  0.000  0.000  0.000  0.000  0.000  0.000  0.000  0.001
tot    0.005  0.000  0.000  0.001  0.000  0.000  0.242  0.000  0.726  0.973
 
band     3 # energy  -15.11032500 # occ.  1.00000000
 
ion      s     py     pz     px    dxy    dyz    dz2    dxz  x2-y2    tot
    1  0.000  0.000  0.000  0.000  0.000  0.000  0.000  0.000  0.000  0.000
    2  0.000  0.000  0.000  0.000  0.083  0.000  0.000  0.895  0.000  0.979
    3  0.000  0.000  0.000  0.000  0.000  0.000  0.000  0.000  0.000  0.000
    4  0.000  0.000  0.000  0.000  0.000  0.000  0.000  0.000  0.000  0.000
    5  0.000  0.000  0.000  0.000  0.000  0.000  0.000  0.000  0.000  0.000
tot    0.000  0.000  0.000  0.000  0.083  0.000  0.000  0.895  0.000  0.979
 
band     4 # energy  -15.11032499 # occ.  1.00000000
 
ion      s     py     pz     px    dxy    dyz    dz2    dxz  x2-y2    tot
    1  0.000  0.000  0.000  0.000  0.000  0.000  0.000  0.000  0.000  0.000
    2  0.000  0.000  0.000  0.000  0.895  0.000  0.000  0.083  0.000  0.979
    3  0.000  0.000  0.000  0.000  0.000  0.000  0.000  0.000  0.000  0.000
    4  0.000  0.000  0.000  0.000  0.000  0.000  0.000  0.000  0.000  0.000
    5  0.000  0.000  0.000  0.000  0.000  0.000  0.000  0.000  0.000  0.000
tot    0.000  0.000  0.000  0.000  0.895  0.000  0.000  0.083  0.000  0.979
 
band     5 # energy  -15.11002355 # occ.  1.00000000
 
ion      s     py     pz     px    dxy    dyz    dz2    dxz  x2-y2    tot
    1  0.000  0.000  0.000  0.000  0.000  0.000  0.000  0.000  0.000  0.000
    2  0.000  0.000  0.000  0.000  0.000  0.979  0.000  0.000  0.000  0.979
    3  0.000  0.000  0.000  0.000  0.000  0.000  0.000  0.000  0.000  0.000
    4  0.000  0.000  0.000  0.000  0.000  0.000  0.000  0.000  0.000  0.000
    5  0.000  0.000  0.000  0.000  0.000  0.000  0.000  0.000  0.000  0.000
tot    0.000  0.000  0.000  0.000  0.000  0.979  0.000  0.000  0.000  0.979
 
band     6 # energy  -10.70690690 # occ.  1.00000000
 
ion      s     py     pz     px    dxy    dyz    dz2    dxz  x2-y2    tot
    1  0.000  0.000  0.000  0.000  0.000  0.000  0.000  0.000  0.000  0.000
    2  0.060  0.000  0.000  0.001  0.000  0.000  0.000  0.000  0.000  0.061
    3  0.169  0.000  0.000  0.000  0.000  0.000  0.000  0.000  0.000  0.170
    4  0.236  0.000  0.000  0.000  0.000  0.000  0.000  0.000  0.000  0.236
    5  0.236  0.000  0.000  0.000  0.000  0.000  0.000  0.000  0.000  0.236
tot    0.701  0.000  0.000  0.001  0.000  0.000  0.000  0.000  0.001  0.703
 
band     7 # energy  -10.08675659 # occ.  1.00000000
 
ion      s     py     pz     px    dxy    dyz    dz2    dxz  x2-y2    tot
    1  0.000  0.000  0.000  0.000  0.000  0.000  0.000  0.000  0.000  0.000
    2  0.001  0.000  0.000  0.003  0.000  0.000  0.002  0.000  0.007  0.012
    3  0.555  0.000  0.000  0.000  0.000  0.000  0.000  0.000  0.000  0.556
    4  0.095  0.000  0.000  0.000  0.000  0.000  0.000  0.000  0.000  0.095
    5  0.095  0.000  0.000  0.000  0.000  0.000  0.000  0.000  0.000  0.095
tot    0.746  0.000  0.000  0.003  0.000  0.000  0.002  0.000  0.007  0.758
 
band     8 # energy   -9.98199616 # occ.  1.00000000
 
ion      s     py     pz     px    dxy    dyz    dz2    dxz  x2-y2    tot
    1  0.000  0.000  0.000  0.000  0.000  0.000  0.000  0.000  0.000  0.000
    2  0.000  0.000  0.000  0.000  0.000  0.000  0.011  0.000  0.004  0.015
    3  0.000  0.000  0.000  0.000  0.000  0.000  0.000  0.000  0.000  0.000
    4  0.377  0.000  0.000  0.000  0.000  0.000  0.000  0.000  0.000  0.377
    5  0.377  0.000  0.000  0.000  0.000  0.000  0.000  0.000  0.000  0.377
tot    0.755  0.000  0.000  0.000  0.000  0.000  0.011  0.000  0.004  0.770
 
band     9 # energy   -5.66014453 # occ.  1.00000000
 
ion      s     py     pz     px    dxy    dyz    dz2    dxz  x2-y2    tot
    1  0.000  0.000  0.000  0.000  0.000  0.000  0.000  0.000  0.000  0.000
    2  0.611  0.000  0.000  0.002  0.000  0.000  0.000  0.000  0.000  0.614
    3  0.017  0.000  0.000  0.025  0.000  0.000  0.000  0.000  0.001  0.042
    4  0.044  0.000  0.000  0.000  0.000  0.000  0.000  0.000  0.001  0.046
    5  0.044  0.000  0.000  0.000  0.000  0.000  0.002  0.000  0.000  0.046
tot    0.717  0.000  0.000  0.027  0.000  0.000  0.002  0.000  0.002  0.748
 
band    10 # energy   -2.47028012 # occ.  1.00000000
 
ion      s     py     pz     px    dxy    dyz    dz2    dxz  x2-y2    tot
    1  0.305  0.000  0.000  0.000  0.000  0.000  0.000  0.000  0.000  0.305
    2  0.001  0.000  0.000  0.001  0.000  0.000  0.000  0.000  0.000  0.002
    3  0.005  0.000  0.000  0.001  0.000  0.000  0.000  0.000  0.000  0.006
    4  0.002  0.000  0.000  0.009  0.000  0.000  0.000  0.000  0.000  0.010
    5  0.002  0.000  0.000  0.009  0.000  0.000  0.000  0.000  0.000  0.010
tot    0.314  0.000  0.000  0.019  0.000  0.000  0.000  0.000  0.000  0.332
 
band    11 # energy   -2.03069972 # occ.  1.00000000
 
ion      s     py     pz     px    dxy    dyz    dz2    dxz  x2-y2    tot
    1  0.000  0.000  0.000  0.000  0.000  0.000  0.000  0.000  0.000  0.000
    2  0.000  0.017  0.089  0.000  0.000  0.000  0.000  0.000  0.000  0.106
    3  0.000  0.003  0.016  0.000  0.000  0.000  0.000  0.000  0.000  0.019
    4  0.000  0.047  0.029  0.000  0.000  0.000  0.000  0.000  0.000  0.076
    5  0.000  0.006  0.249  0.000  0.000  0.000  0.000  0.000  0.000  0.255
tot    0.000  0.073  0.384  0.000  0.000  0.000  0.000  0.000  0.000  0.457
 
band    12 # energy   -2.03069972 # occ.  1.00000000
 
ion      s     py     pz     px    dxy    dyz    dz2    dxz  x2-y2    tot
    1  0.000  0.000  0.000  0.000  0.000  0.000  0.000  0.000  0.000  0.000
    2  0.000  0.089  0.017  0.000  0.000  0.000  0.000  0.000  0.000  0.106
    3  0.000  0.016  0.003  0.000  0.000  0.000  0.000  0.000  0.000  0.019
    4  0.000  0.249  0.006  0.000  0.000  0.000  0.000  0.000  0.000  0.255
    5  0.000  0.029  0.047  0.000  0.000  0.000  0.000  0.000  0.000  0.076
tot    0.000  0.384  0.073  0.000  0.000  0.000  0.000  0.000  0.000  0.457
 
band    13 # energy   -1.19247992 # occ.  1.00000000
 
ion      s     py     pz     px    dxy    dyz    dz2    dxz  x2-y2    tot
    1  0.015  0.000  0.000  0.001  0.000  0.000  0.000  0.000  0.000  0.016
    2  0.037  0.000  0.000  0.079  0.000  0.000  0.001  0.000  0.003  0.119
    3  0.009  0.000  0.000  0.225  0.000  0.000  0.000  0.000  0.001  0.236
    4  0.000  0.000  0.000  0.057  0.000  0.000  0.000  0.000  0.000  0.057
    5  0.000  0.000  0.000  0.057  0.000  0.000  0.000  0.000  0.000  0.057
tot    0.062  0.000  0.000  0.419  0.000  0.000  0.002  0.000  0.004  0.486
 
band    14 # energy    0.04931212 # occ.  1.00000000
 
ion      s     py     pz     px    dxy    dyz    dz2    dxz  x2-y2    tot
    1  0.000  0.000  0.004  0.000  0.000  0.000  0.000  0.000  0.000  0.004
    2  0.000  0.000  0.003  0.000  0.000  0.000  0.000  0.002  0.000  0.005
    3  0.000  0.031  0.423  0.000  0.000  0.000  0.000  0.000  0.000  0.454
    4  0.000  0.002  0.000  0.000  0.000  0.000  0.000  0.000  0.000  0.003
    5  0.000  0.000  0.031  0.000  0.000  0.000  0.000  0.000  0.000  0.032
tot    0.000  0.034  0.462  0.000  0.000  0.000  0.000  0.002  0.000  0.497
 
band    15 # energy    0.04931212 # occ.  1.00000000
 
ion      s     py     pz     px    dxy    dyz    dz2    dxz  x2-y2    tot
    1  0.000  0.004  0.000  0.000  0.000  0.000  0.000  0.000  0.000  0.004
    2  0.000  0.003  0.000  0.000  0.002  0.000  0.000  0.000  0.000  0.005
    3  0.000  0.423  0.031  0.000  0.000  0.000  0.000  0.000  0.000  0.454
    4  0.000  0.031  0.000  0.000  0.000  0.000  0.000  0.000  0.000  0.032
    5  0.000  0.000  0.002  0.000  0.000  0.000  0.000  0.000  0.000  0.003
tot    0.000  0.462  0.034  0.000  0.002  0.000  0.000  0.000  0.000  0.497
 
band    16 # energy    0.14382347 # occ.  1.00000000
 
ion      s     py     pz     px    dxy    dyz    dz2    dxz  x2-y2    tot
    1  0.000  0.000  0.000  0.000  0.000  0.000  0.000  0.000  0.000  0.000
    2  0.000  0.000  0.000  0.000  0.000  0.000  0.000  0.000  0.000  0.000
    3  0.000  0.000  0.000  0.000  0.000  0.000  0.000  0.000  0.000  0.000
    4  0.000  0.000  0.000  0.256  0.000  0.000  0.000  0.000  0.000  0.256
    5  0.000  0.000  0.000  0.256  0.000  0.000  0.000  0.000  0.000  0.256
tot    0.000  0.000  0.000  0.512  0.000  0.000  0.000  0.000  0.000  0.512
 
band    17 # energy    0.21990278 # occ.  1.00000000
 
ion      s     py     pz     px    dxy    dyz    dz2    dxz  x2-y2    tot
    1  0.000  0.000  0.001  0.000  0.000  0.000  0.000  0.000  0.000  0.001
    2  0.000  0.000  0.005  0.000  0.000  0.000  0.000  0.000  0.000  0.005
    3  0.000  0.000  0.004  0.000  0.000  0.000  0.000  0.000  0.000  0.004